LAMMPS data file. msi2lmp v3.9.9 / 05 Nov 2018 / CGCMM for Structures\pa6_x3_cvff

     59 atoms
     58 bonds
    108 angles
    150 dihedrals
      6 impropers

   8 atom types
  11 bond types
  21 angle types
  27 dihedral types
   4 improper types

    -4.327132810    16.526721934 xlo xhi
    -1.587200947     2.967139949 ylo yhi
   -14.172691544     5.487138485 zlo zhi

Masses

   1   1.007970 # hn
   2  12.011150 # c2
   3   1.007970 # h
   4  12.011150 # c'
   5  15.999400 # o'
   6  14.006700 # n2
   7  14.006700 # n
   8  12.011150 # c3

Pair Coeffs # lj/cut/coul/long

   1   0.0000000000   0.0000000000 # hn
   2   0.0389999952   3.8754094636 # c2
   3   0.0380000011   2.4499714540 # h
   4   0.1479999981   3.6170487995 # c'
   5   0.2280000124   2.8597848722 # o'
   6   0.1669999743   3.5012320066 # n2
   7   0.1669999743   3.5012320066 # n
   8   0.0389999952   3.8754094636 # c3

Bond Coeffs # harmonic

   1   457.4592     1.0260 # hn-n2
   2   322.7158     1.5260 # c2-c2
   3   340.6175     1.1050 # c2-h
   4   377.5752     1.4600 # c2-n
   5   283.0924     1.5200 # c2-c'
   6   615.3220     1.2300 # c'-o'
   7   388.0000     1.3200 # c'-n2
   8   483.4512     1.0260 # hn-n
   9   388.0000     1.3200 # c'-n
  10   322.7158     1.5260 # c2-c3
  11   340.6175     1.1050 # h-c3

Angle Coeffs # harmonic

   1    44.4000   110.0000 # c2-c2-h
   2    50.0000   109.5000 # c2-c2-n
   3    39.5000   106.4000 # h-c2-h
   4    51.5000   109.5000 # h-c2-n
   5    46.6000   110.5000 # c2-c2-c2
   6    45.0000   109.5000 # h-c2-c'
   7    46.6000   110.5000 # c2-c2-c'
   8    68.0000   120.0000 # o'-c'-n2
   9    68.0000   120.0000 # c2-c'-o'
  10    53.5000   114.1000 # c2-c'-n2
  11    37.5000   115.0000 # hn-n2-c'
  12    33.0000   125.0000 # hn-n2-hn
  13    68.0000   120.0000 # o'-c'-n
  14    53.5000   114.1000 # c2-c'-n
  15    37.5000   115.0000 # hn-n-c'
  16   111.0000   118.0000 # c2-n-c'
  17    35.0000   122.0000 # hn-n-c2
  18    44.4000   110.0000 # c2-c3-h
  19    39.5000   106.4000 # h-c3-h
  20    46.6000   110.5000 # c2-c2-c3
  21    44.4000   110.0000 # h-c2-c3

Dihedral Coeffs # harmonic

  1     0.1581   1   3 # c2-c2-c2-h
  2     0.1581   1   3 # h-c2-c2-h
  3     0.1581   1   3 # c2-c2-c2-n
  4     0.1581   1   3 # h-c2-c2-n
  5     0.0000   1   0 # c2-c2-n-c'
  6     0.0000   1   0 # c2-c2-n-hn
  7     0.0000   1   0 # h-c2-n-c'
  8     0.0000   1   0 # h-c2-n-hn
  9     0.1581   1   3 # c2-c2-c2-c2
 10     0.1581   1   3 # c2-c2-c2-c'
 11     0.1581   1   3 # h-c2-c2-c'
 12     0.0000   1   0 # h-c2-c'-o'
 13     0.0000   1   0 # h-c2-c'-n2
 14     0.0000   1   0 # c2-c2-c'-o'
 15     0.0000   1   0 # c2-c2-c'-n2
 16     1.5000  -1   2 # o'-c'-n2-hn
 17     1.5000  -1   2 # c2-c'-n2-hn
 18     0.0000   1   0 # h-c2-c'-n
 19     0.0000   1   0 # c2-c2-c'-n
 20     1.8000  -1   2 # o'-c'-n-hn
 21     3.8000  -1   2 # o'-c'-n-c2
 22     1.2000  -1   2 # c2-c'-n-hn
 23     3.2000  -1   2 # c2-c'-n-c2
 24     0.1581   1   3 # c2-c2-c3-h
 25     0.1581   1   3 # h-c2-c3-h
 26     0.1581   1   3 # c2-c2-c2-c3
 27     0.1581   1   3 # h-c2-c2-c3

Improper Coeffs # cvff

    1    10.0000  -1   2 # c2-c'-n2-o'
    2     0.0500  -1   2 # hn-n2-c'-hn
    3    10.0000  -1   2 # c2-c'-n-o'
    4     0.0500  -1   2 # c'-n-c2-hn

Atoms # full

      1      1   1  0.280000    -2.200667858    -0.388070904     4.987138485   0   0   0 # hn
      2      1   2  0.020000     2.792645734     0.236781596    -0.627552361   0   0   0 # c2
      3      1   3  0.100000     3.393695383     0.900921947     0.014118034   0   0   0 # h
      4      1   3  0.100000     3.107571723    -0.800905974    -0.431824198   0   0   0 # h
      5      1   2 -0.200000     1.299912462     0.414573332    -0.348121671   0   0   0 # c2
      6      1   3  0.100000     1.003962584     1.452182173    -0.583838818   0   0   0 # h
      7      1   3  0.100000     0.720372043    -0.238305813    -1.024482569   0   0   0 # h
      8      1   2 -0.200000     0.929121226     0.098310244     1.104580239   0   0   0 # c2
      9      1   3  0.100000     1.511625007     0.752401233     1.777515786   0   0   0 # h
     10      1   3  0.100000     1.228088929    -0.939358370     1.336758346   0   0   0 # h
     11      1   2 -0.200000    -0.564777522     0.272289874     1.398570435   0   0   0 # c2
     12      1   3  0.100000    -0.857060743     1.311947654     1.165506918   0   0   0 # h
     13      1   3  0.100000    -1.141707464    -0.384396362     0.722907791   0   0   0 # h
     14      1   2 -0.200000    -0.932342410    -0.045018467     2.850826575   0   0   0 # c2
     15      1   3  0.100000    -0.653200501    -1.087200947     3.084045133   0   0   0 # h
     16      1   3  0.100000    -0.367498210     0.617737662     3.529096864   0   0   0 # h
     17      1   4  0.380000    -2.447166827     0.161758326     3.029765087   0   0   0 # c'
     18      1   5 -0.380000    -3.217294355     0.515621024     2.162579649   0   0   0 # o'
     19      1   6 -0.560000    -2.846709554    -0.096278190     4.281156676   0   0   0 # n2
     20      1   1  0.280000    -3.827132810     0.019145616     4.466650176   0   0   0 # hn
     21      2   1  0.280000     2.430872739     0.847183688    -2.722648241   0   0   0 # hn
     22      2   2  0.020000     8.311006235     1.091896609    -7.435664284   0   0   0 # c2
     23      2   3  0.100000     7.755731900     0.433662876    -8.123038088   0   0   0 # h
     24      2   3  0.100000     8.045898504     2.134308623    -7.675202316   0   0   0 # h
     25      2   2 -0.200000     7.975859766     0.765689096    -5.979913778   0   0   0 # c2
     26      2   3  0.100000     8.281678601    -0.271901834    -5.757066493   0   0   0 # h
     27      2   3  0.100000     8.567625356     1.417284074    -5.312965645   0   0   0 # h
     28      2   2 -0.200000     6.485951680     0.934805896    -5.664596914   0   0   0 # c2
     29      2   3  0.100000     5.897837746     0.282528059    -6.334405506   0   0   0 # h
     30      2   3  0.100000     6.183795660     1.972990556    -5.890249001   0   0   0 # h
     31      2   2 -0.200000     6.135942328     0.611149836    -4.208172242   0   0   0 # c2
     32      2   3  0.100000     6.439464086    -0.428369169    -3.989286048   0   0   0 # h
     33      2   3  0.100000     6.726824839     1.266695384    -3.543549890   0   0   0 # h
     34      2   2 -0.200000     4.646546770     0.781615888    -3.895956574   0   0   0 # c2
     35      2   3  0.100000     4.342032494     1.822505207    -4.101567626   0   0   0 # h
     36      2   3  0.100000     4.052988065     0.118803052    -4.549188882   0   0   0 # h
     37      2   4  0.380000     4.412760631     0.432562007    -2.415087209   0   0   0 # c'
     38      2   5 -0.380000     5.268171682     0.082747459    -1.630085604   0   0   0 # o'
     39      2   7 -0.500000     3.126659084     0.557078113    -2.064891985   0   0   0 # n
     40      3   1  0.280000    10.429444049     0.617976478    -7.010789673   0   0   0 # hn
     41      3   8 -0.300000    15.423269816     1.245909292   -12.624681296   0   0   0 # c3
     42      3   3  0.100000    16.026721934     1.905759194   -11.980843093   0   0   0 # h
     43      3   3  0.100000    15.734767002     0.206486401   -12.432710097   0   0   0 # h
     44      3   2 -0.200000    13.931218890     1.427718163   -12.344193150   0   0   0 # c2
     45      3   3  0.100000    13.638686363     2.467139949   -12.576158843   0   0   0 # h
     46      3   3  0.100000    13.349304047     0.779179744   -13.022688082   0   0   0 # h
     47      3   2 -0.200000    13.559771285     1.107570594   -10.892510150   0   0   0 # c2
     48      3   3  0.100000    14.144652590     1.757323005   -10.217437123   0   0   0 # h
     49      3   3  0.100000    13.855320439     0.068091417   -10.664084558   0   0   0 # h
     50      3   2 -0.200000    12.066546135     1.285519880   -10.597475715   0   0   0 # c2
     51      3   3  0.100000    11.777687853     2.326968909   -10.826781618   0   0   0 # h
     52      3   3  0.100000    11.487229175     0.633163193   -11.275286597   0   0   0 # h
     53      3   2 -0.200000    11.698321229     0.964317824    -9.146243106   0   0   0 # c2
     54      3   3  0.100000    11.974029846    -0.079612349    -8.916787283   0   0   0 # h
     55      3   3  0.100000    12.265573601     1.622775654    -8.465799666   0   0   0 # h
     56      3   4  0.380000    10.184248677     1.175540496    -8.966137759   0   0   0 # c'
     57      3   5 -0.380000     9.415072365     1.535045275    -9.831845514   0   0   0 # o'
     58      3   7 -0.500000     9.784189302     0.914426382    -7.715549874   0   0   0 # n
     59      3   3  0.100000    15.667478650     1.482502145   -13.672691544   0   0   0 # h

Bonds

     1   1      1     19
     2   2      2      5
     3   3      2      4
     4   3      2      3
     5   4      2     39
     6   2      5      8
     7   3      5      7
     8   3      5      6
     9   2      8     11
    10   3      8     10
    11   3      8      9
    12   2     11     14
    13   3     11     13
    14   3     11     12
    15   3     14     16
    16   3     14     15
    17   5     14     17
    18   6     17     18
    19   7     17     19
    20   1     20     19
    21   8     21     39
    22   2     22     25
    23   3     22     24
    24   3     22     23
    25   4     22     58
    26   2     25     28
    27   3     25     27
    28   3     25     26
    29   2     28     31
    30   3     28     30
    31   3     28     29
    32   2     31     34
    33   3     31     33
    34   3     31     32
    35   3     34     36
    36   3     34     35
    37   5     34     37
    38   6     37     38
    39   9     37     39
    40   8     40     58
    41  10     44     41
    42  11     43     41
    43  11     42     41
    44  11     59     41
    45   2     44     47
    46   3     44     46
    47   3     44     45
    48   2     47     50
    49   3     47     49
    50   3     47     48
    51   2     50     53
    52   3     50     52
    53   3     50     51
    54   3     53     55
    55   3     53     54
    56   5     53     56
    57   6     56     57
    58   9     56     58

Angles

     1   1      5      2      4
     2   1      5      2      3
     3   2      5      2     39
     4   3      4      2      3
     5   4      4      2     39
     6   4      3      2     39
     7   5      2      5      8
     8   1      2      5      7
     9   1      2      5      6
    10   1      8      5      7
    11   1      8      5      6
    12   3      7      5      6
    13   5      5      8     11
    14   1      5      8     10
    15   1      5      8      9
    16   1     11      8     10
    17   1     11      8      9
    18   3     10      8      9
    19   5      8     11     14
    20   1      8     11     13
    21   1      8     11     12
    22   1     14     11     13
    23   1     14     11     12
    24   3     13     11     12
    25   3     16     14     15
    26   1     11     14     16
    27   6     16     14     17
    28   1     11     14     15
    29   6     15     14     17
    30   7     11     14     17
    31   8     18     17     19
    32   9     14     17     18
    33  10     14     17     19
    34  11     20     19     17
    35  11      1     19     17
    36  12     20     19      1
    37   1     25     22     24
    38   1     25     22     23
    39   2     25     22     58
    40   3     24     22     23
    41   4     24     22     58
    42   4     23     22     58
    43   5     22     25     28
    44   1     22     25     27
    45   1     22     25     26
    46   1     28     25     27
    47   1     28     25     26
    48   3     27     25     26
    49   5     25     28     31
    50   1     25     28     30
    51   1     25     28     29
    52   1     31     28     30
    53   1     31     28     29
    54   3     30     28     29
    55   5     28     31     34
    56   1     28     31     33
    57   1     28     31     32
    58   1     34     31     33
    59   1     34     31     32
    60   3     33     31     32
    61   3     36     34     35
    62   1     31     34     36
    63   6     36     34     37
    64   1     31     34     35
    65   6     35     34     37
    66   7     31     34     37
    67  13     38     37     39
    68   9     34     37     38
    69  14     34     37     39
    70  15     21     39     37
    71  16      2     39     37
    72  17     21     39      2
    73  18     44     41     43
    74  18     44     41     42
    75  18     44     41     59
    76  19     43     41     42
    77  19     43     41     59
    78  19     42     41     59
    79  20     47     44     41
    80  21     46     44     41
    81  21     45     44     41
    82   1     47     44     46
    83   1     47     44     45
    84   3     46     44     45
    85   5     44     47     50
    86   1     44     47     49
    87   1     44     47     48
    88   1     50     47     49
    89   1     50     47     48
    90   3     49     47     48
    91   5     47     50     53
    92   1     47     50     52
    93   1     47     50     51
    94   1     53     50     52
    95   1     53     50     51
    96   3     52     50     51
    97   3     55     53     54
    98   1     50     53     55
    99   6     55     53     56
   100   1     50     53     54
   101   6     54     53     56
   102   7     50     53     56
   103  13     57     56     58
   104   9     53     56     57
   105  14     53     56     58
   106  15     40     58     56
   107  16     22     58     56
   108  17     40     58     22

Dihedrals

     1   1      8      5      2      4
     2   2      4      2      5      7
     3   2      4      2      5      6
     4   1      8      5      2      3
     5   2      3      2      5      7
     6   2      3      2      5      6
     7   3      8      5      2     39
     8   4      7      5      2     39
     9   4      6      5      2     39
    10   5      5      2     39     37
    11   6      5      2     39     21
    12   7      4      2     39     37
    13   8      4      2     39     21
    14   7      3      2     39     37
    15   8      3      2     39     21
    16   9      2      5      8     11
    17   1      2      5      8     10
    18   1      2      5      8      9
    19   1     11      8      5      7
    20   2      7      5      8     10
    21   2      7      5      8      9
    22   1     11      8      5      6
    23   2      6      5      8     10
    24   2      6      5      8      9
    25   9      5      8     11     14
    26   1      5      8     11     13
    27   1      5      8     11     12
    28   1     14     11      8     10
    29   2     10      8     11     13
    30   2     10      8     11     12
    31   1     14     11      8      9
    32   2      9      8     11     13
    33   2      9      8     11     12
    34   1      8     11     14     16
    35   1      8     11     14     15
    36  10      8     11     14     17
    37   2     13     11     14     16
    38   2     13     11     14     15
    39  11     13     11     14     17
    40   2     12     11     14     16
    41   2     12     11     14     15
    42  11     12     11     14     17
    43  12     16     14     17     18
    44  13     16     14     17     19
    45  12     15     14     17     18
    46  13     15     14     17     19
    47  14     11     14     17     18
    48  15     11     14     17     19
    49  16     18     17     19     20
    50  16     18     17     19      1
    51  17     14     17     19     20
    52  17     14     17     19      1
    53   1     28     25     22     24
    54   2     24     22     25     27
    55   2     24     22     25     26
    56   1     28     25     22     23
    57   2     23     22     25     27
    58   2     23     22     25     26
    59   3     28     25     22     58
    60   4     27     25     22     58
    61   4     26     25     22     58
    62   5     25     22     58     56
    63   6     25     22     58     40
    64   7     24     22     58     56
    65   8     24     22     58     40
    66   7     23     22     58     56
    67   8     23     22     58     40
    68   9     22     25     28     31
    69   1     22     25     28     30
    70   1     22     25     28     29
    71   1     31     28     25     27
    72   2     27     25     28     30
    73   2     27     25     28     29
    74   1     31     28     25     26
    75   2     26     25     28     30
    76   2     26     25     28     29
    77   9     25     28     31     34
    78   1     25     28     31     33
    79   1     25     28     31     32
    80   1     34     31     28     30
    81   2     30     28     31     33
    82   2     30     28     31     32
    83   1     34     31     28     29
    84   2     29     28     31     33
    85   2     29     28     31     32
    86   1     28     31     34     36
    87   1     28     31     34     35
    88  10     28     31     34     37
    89   2     33     31     34     36
    90   2     33     31     34     35
    91  11     33     31     34     37
    92   2     32     31     34     36
    93   2     32     31     34     35
    94  11     32     31     34     37
    95  12     36     34     37     38
    96  18     36     34     37     39
    97  12     35     34     37     38
    98  18     35     34     37     39
    99  14     31     34     37     38
   100  19     31     34     37     39
   101  20     38     37     39     21
   102  21     38     37     39      2
   103  22     34     37     39     21
   104  23     34     37     39      2
   105  24     47     44     41     43
   106  25     46     44     41     43
   107  25     45     44     41     43
   108  24     47     44     41     42
   109  25     46     44     41     42
   110  25     45     44     41     42
   111  24     47     44     41     59
   112  25     46     44     41     59
   113  25     45     44     41     59
   114  26     50     47     44     41
   115  27     49     47     44     41
   116  27     48     47     44     41
   117   1     50     47     44     46
   118   2     46     44     47     49
   119   2     46     44     47     48
   120   1     50     47     44     45
   121   2     45     44     47     49
   122   2     45     44     47     48
   123   9     44     47     50     53
   124   1     44     47     50     52
   125   1     44     47     50     51
   126   1     53     50     47     49
   127   2     49     47     50     52
   128   2     49     47     50     51
   129   1     53     50     47     48
   130   2     48     47     50     52
   131   2     48     47     50     51
   132   1     47     50     53     55
   133   1     47     50     53     54
   134  10     47     50     53     56
   135   2     52     50     53     55
   136   2     52     50     53     54
   137  11     52     50     53     56
   138   2     51     50     53     55
   139   2     51     50     53     54
   140  11     51     50     53     56
   141  12     55     53     56     57
   142  18     55     53     56     58
   143  12     54     53     56     57
   144  18     54     53     56     58
   145  14     50     53     56     57
   146  19     50     53     56     58
   147  20     57     56     58     40
   148  21     57     56     58     22
   149  22     53     56     58     40
   150  23     53     56     58     22

Impropers

     1   1     14     17     19     18 
     2   2     20     19     17      1 
     3   3     34     37     39     38 
     4   4     37     39      2     21 
     5   3     53     56     58     57 
     6   4     56     58     22     40 

