LAMMPS data file. msi2lmp v3.9.9 / 05 Nov 2018 / CGCMM for Structures\pa6_x10_cvff_relax

    192 atoms
    191 bonds
    360 angles
    514 dihedrals
     20 impropers

   8 atom types
  11 bond types
  21 angle types
  27 dihedral types
   4 improper types

    18.504814683    35.637707771 xlo xhi
   -12.329914422    12.007923115 ylo yhi
   -36.317384680   -13.343627097 zlo zhi

Masses

   1   1.007970 # hn
   2  12.011150 # c2
   3   1.007970 # h
   4  12.011150 # c'
   5  15.999400 # o'
   6  14.006700 # n2
   7  14.006700 # n
   8  12.011150 # c3

Pair Coeffs # lj/cut/coul/long

   1   0.0000000000   0.0000000000 # hn
   2   0.0389999952   3.8754094636 # c2
   3   0.0380000011   2.4499714540 # h
   4   0.1479999981   3.6170487995 # c'
   5   0.2280000124   2.8597848722 # o'
   6   0.1669999743   3.5012320066 # n2
   7   0.1669999743   3.5012320066 # n
   8   0.0389999952   3.8754094636 # c3

Bond Coeffs # harmonic

   1   457.4592     1.0260 # hn-n2
   2   322.7158     1.5260 # c2-c2
   3   340.6175     1.1050 # c2-h
   4   377.5752     1.4600 # c2-n
   5   283.0924     1.5200 # c2-c'
   6   615.3220     1.2300 # c'-o'
   7   388.0000     1.3200 # c'-n2
   8   483.4512     1.0260 # hn-n
   9   388.0000     1.3200 # c'-n
  10   322.7158     1.5260 # c2-c3
  11   340.6175     1.1050 # h-c3

Angle Coeffs # harmonic

   1    44.4000   110.0000 # c2-c2-h
   2    50.0000   109.5000 # c2-c2-n
   3    39.5000   106.4000 # h-c2-h
   4    51.5000   109.5000 # h-c2-n
   5    46.6000   110.5000 # c2-c2-c2
   6    45.0000   109.5000 # h-c2-c'
   7    46.6000   110.5000 # c2-c2-c'
   8    68.0000   120.0000 # o'-c'-n2
   9    68.0000   120.0000 # c2-c'-o'
  10    53.5000   114.1000 # c2-c'-n2
  11    37.5000   115.0000 # hn-n2-c'
  12    33.0000   125.0000 # hn-n2-hn
  13    68.0000   120.0000 # o'-c'-n
  14    53.5000   114.1000 # c2-c'-n
  15    37.5000   115.0000 # hn-n-c'
  16   111.0000   118.0000 # c2-n-c'
  17    35.0000   122.0000 # hn-n-c2
  18    44.4000   110.0000 # c2-c3-h
  19    39.5000   106.4000 # h-c3-h
  20    46.6000   110.5000 # c2-c2-c3
  21    44.4000   110.0000 # h-c2-c3

Dihedral Coeffs # harmonic

  1     0.1581   1   3 # c2-c2-c2-h
  2     0.1581   1   3 # h-c2-c2-h
  3     0.1581   1   3 # c2-c2-c2-n
  4     0.1581   1   3 # h-c2-c2-n
  5     0.0000   1   0 # c2-c2-n-c'
  6     0.0000   1   0 # c2-c2-n-hn
  7     0.0000   1   0 # h-c2-n-c'
  8     0.0000   1   0 # h-c2-n-hn
  9     0.1581   1   3 # c2-c2-c2-c2
 10     0.1581   1   3 # c2-c2-c2-c'
 11     0.1581   1   3 # h-c2-c2-c'
 12     0.0000   1   0 # h-c2-c'-o'
 13     0.0000   1   0 # h-c2-c'-n2
 14     0.0000   1   0 # c2-c2-c'-o'
 15     0.0000   1   0 # c2-c2-c'-n2
 16     1.5000  -1   2 # o'-c'-n2-hn
 17     1.5000  -1   2 # c2-c'-n2-hn
 18     0.0000   1   0 # h-c2-c'-n
 19     0.0000   1   0 # c2-c2-c'-n
 20     1.8000  -1   2 # o'-c'-n-hn
 21     3.8000  -1   2 # o'-c'-n-c2
 22     1.2000  -1   2 # c2-c'-n-hn
 23     3.2000  -1   2 # c2-c'-n-c2
 24     0.1581   1   3 # c2-c2-c3-h
 25     0.1581   1   3 # h-c2-c3-h
 26     0.1581   1   3 # c2-c2-c2-c3
 27     0.1581   1   3 # h-c2-c2-c3

Improper Coeffs # cvff

    1    10.0000  -1   2 # c2-c'-n2-o'
    2     0.0500  -1   2 # hn-n2-c'-hn
    3    10.0000  -1   2 # c2-c'-n-o'
    4     0.0500  -1   2 # c'-n-c2-hn

Atoms # full

      1      1   1  0.280000    30.915581506    -2.172627754   -18.719359189   0   0   0 # hn
      2      1   2  0.020000    25.056513735    -6.012529227   -21.804464080   0   0   0 # c2
      3      1   3  0.100000    25.096808670    -7.013946555   -21.235896894   0   0   0 # h
      4      1   3  0.100000    24.556304476    -5.280110839   -21.136812427   0   0   0 # h
      5      1   2 -0.200000    26.536402535    -5.566707666   -22.038629554   0   0   0 # c2
      6      1   3  0.100000    27.078491804    -6.300056316   -22.651868085   0   0   0 # h
      7      1   3  0.100000    26.448059246    -4.691475718   -22.715904524   0   0   0 # h
      8      1   2 -0.200000    27.256071600    -5.206818698   -20.737091708   0   0   0 # c2
      9      1   3  0.100000    27.324660493    -5.951251454   -19.963972470   0   0   0 # h
     10      1   3  0.100000    26.661605736    -4.355723957   -20.237260307   0   0   0 # h
     11      1   2 -0.200000    28.617687304    -4.611063438   -21.097274516   0   0   0 # c2
     12      1   3  0.100000    29.266895925    -5.395474064   -21.516092808   0   0   0 # h
     13      1   3  0.100000    28.351810975    -3.806106056   -21.873003793   0   0   0 # h
     14      1   2 -0.200000    29.458388644    -3.923685169   -20.004489940   0   0   0 # c2
     15      1   3  0.100000    28.803843143    -3.435050803   -19.249437853   0   0   0 # h
     16      1   3  0.100000    30.008205814    -4.724014036   -19.471557648   0   0   0 # h
     17      1   4  0.380000    30.337044912    -2.774880374   -20.537453972   0   0   0 # c'
     18      1   5 -0.380000    30.294490592    -2.279499153   -21.710908357   0   0   0 # o'
     19      1   6 -0.560000    31.197477514    -2.176187029   -19.711405119   0   0   0 # n2
     20      1   1  0.280000    31.467413439    -1.202320535   -20.251864165   0   0   0 # hn
     21      2   1  0.280000    24.602110204    -5.303584465   -23.871604433   0   0   0 # hn
     22      2   2  0.020000    21.498773864    -1.046299033   -26.982445060   0   0   0 # c2
     23      2   3  0.100000    22.066119662    -1.570915566   -27.811954474   0   0   0 # h
     24      2   3  0.100000    20.422177873    -1.152577205   -27.064235166   0   0   0 # h
     25      2   2 -0.200000    22.222299676    -1.581250052   -25.749685512   0   0   0 # c2
     26      2   3  0.100000    23.244815250    -1.293475560   -25.846806425   0   0   0 # h
     27      2   3  0.100000    21.815762372    -0.937428165   -24.897683687   0   0   0 # h
     28      2   2 -0.200000    21.972988323    -3.048888110   -25.476626121   0   0   0 # c2
     29      2   3  0.100000    22.081148315    -3.627065465   -26.460522505   0   0   0 # h
     30      2   3  0.100000    20.881409533    -3.182468986   -25.342589988   0   0   0 # h
     31      2   2 -0.200000    22.792191940    -3.690874487   -24.391203961   0   0   0 # c2
     32      2   3  0.100000    23.834581366    -3.553870084   -24.685758430   0   0   0 # h
     33      2   3  0.100000    22.677508378    -3.141397831   -23.457533635   0   0   0 # h
     34      2   2 -0.200000    22.437260817    -5.307035968   -24.294753693   0   0   0 # c2
     35      2   3  0.100000    21.394839814    -5.464606187   -24.462548791   0   0   0 # h
     36      2   3  0.100000    22.853358023    -5.809086573   -25.181746431   0   0   0 # h
     37      2   4  0.380000    22.982690860    -5.833754208   -22.971411989   0   0   0 # c'
     38      2   5 -0.380000    22.236113294    -6.189040557   -22.067011334   0   0   0 # o'
     39      2   7 -0.500000    24.323421224    -5.969407606   -23.047567439   0   0   0 # n
     40      3   1  0.280000    22.244220558     0.965343137   -26.483527089   0   0   0 # hn
     41      3   2  0.020000    21.481303623     5.413206668   -25.491725424   0   0   0 # c2
     42      3   3  0.100000    22.164668489     4.526245280   -25.516340553   0   0   0 # h
     43      3   3  0.100000    21.974586095     6.169646893   -26.233275804   0   0   0 # h
     44      3   2 -0.200000    20.000268129     5.003986581   -26.049191921   0   0   0 # c2
     45      3   3  0.100000    19.598938048     4.112773459   -25.378846478   0   0   0 # h
     46      3   3  0.100000    19.207560592     5.741627425   -25.850236666   0   0   0 # h
     47      3   2 -0.200000    19.924405632     4.576956003   -27.508327258   0   0   0 # c2
     48      3   3  0.100000    20.741455549     5.020343507   -28.138496909   0   0   0 # h
     49      3   3  0.100000    19.004814683     5.051985835   -27.904260734   0   0   0 # h
     50      3   2 -0.200000    19.883369443     3.023425490   -27.728249420   0   0   0 # c2
     51      3   3  0.100000    19.396355239     2.349429177   -26.897338363   0   0   0 # h
     52      3   3  0.100000    19.248887620     2.915694765   -28.622367297   0   0   0 # h
     53      3   2 -0.200000    21.314525301     2.480940624   -28.055054800   0   0   0 # c2
     54      3   3  0.100000    21.685398745     2.893313292   -29.044337359   0   0   0 # h
     55      3   3  0.100000    22.078738654     2.857983610   -27.301367790   0   0   0 # h
     56      3   4  0.380000    21.319982502     1.021801925   -28.230094332   0   0   0 # c'
     57      3   5 -0.380000    20.925622819     0.489300207   -29.246287499   0   0   0 # o'
     58      3   7 -0.500000    21.766136713     0.360251678   -27.156917169   0   0   0 # n
     59      4   1  0.280000    20.322673065     6.128440185   -23.719152885   0   0   0 # hn
     60      4   2  0.020000    21.662883060     5.682211686   -16.862132799   0   0   0 # c2
     61      4   3  0.100000    21.014239800     6.586381326   -16.821981112   0   0   0 # h
     62      4   3  0.100000    21.203328884     4.913792626   -16.249777603   0   0   0 # h
     63      4   2 -0.200000    21.692471031     5.189546616   -18.367769619   0   0   0 # c2
     64      4   3  0.100000    22.629160468     4.627065920   -18.606013986   0   0   0 # h
     65      4   3  0.100000    20.868324681     4.427447581   -18.494962831   0   0   0 # h
     66      4   2 -0.200000    21.457516591     6.236400209   -19.439002578   0   0   0 # c2
     67      4   3  0.100000    21.899431308     7.221568385   -19.267664832   0   0   0 # h
     68      4   3  0.100000    20.446812854     6.459680035   -19.320888565   0   0   0 # h
     69      4   2 -0.200000    21.921792115     5.773127446   -20.770303387   0   0   0 # c2
     70      4   3  0.100000    23.061183315     5.669648476   -20.669238356   0   0   0 # h
     71      4   3  0.100000    21.546151200     4.714934296   -20.990453081   0   0   0 # h
     72      4   2 -0.200000    21.673275674     6.769963983   -21.918088395   0   0   0 # c2
     73      4   3  0.100000    20.561179068     7.091631633   -21.917216554   0   0   0 # h
     74      4   3  0.100000    22.049811602     7.781870130   -21.865565472   0   0   0 # h
     75      4   4  0.380000    22.181884274     6.203949733   -23.212013522   0   0   0 # c'
     76      4   5 -0.380000    23.411211286     6.222282488   -23.412779623   0   0   0 # o'
     77      4   7 -0.500000    21.225736168     5.754705813   -24.087226629   0   0   0 # n
     78      5   1  0.280000    23.768166453     6.159964789   -17.168592587   0   0   0 # hn
     79      5   2  0.020000    29.381658998     9.107545050   -15.113929167   0   0   0 # c2
     80      5   3  0.100000    29.298720091     9.860998034   -14.297804857   0   0   0 # h
     81      5   3  0.100000    29.778639236     8.150756866   -14.609535893   0   0   0 # h
     82      5   2 -0.200000    28.008910937     8.882320708   -15.860398900   0   0   0 # c2
     83      5   3  0.100000    27.661983414     9.878350570   -16.019088754   0   0   0 # h
     84      5   3  0.100000    28.007686492     8.329035386   -16.795035247   0   0   0 # h
     85      5   2 -0.200000    27.057681792     7.982284134   -15.006146422   0   0   0 # c2
     86      5   3  0.100000    26.871816910     8.560352895   -14.073758031   0   0   0 # h
     87      5   3  0.100000    27.530131080     7.012025301   -14.841244309   0   0   0 # h
     88      5   2 -0.200000    25.616774137     7.756024331   -15.765333306   0   0   0 # c2
     89      5   3  0.100000    25.196824505     8.786998261   -15.722793569   0   0   0 # h
     90      5   3  0.100000    25.854836228     7.380548868   -16.783750346   0   0   0 # h
     91      5   2 -0.200000    24.789480767     6.789244736   -14.928119019   0   0   0 # c2
     92      5   3  0.100000    25.091096886     5.730818580   -15.002438834   0   0   0 # h
     93      5   3  0.100000    24.834137076     7.096032620   -13.843627097   0   0   0 # h
     94      5   4  0.380000    23.295391091     6.823658284   -15.377273242   0   0   0 # c'
     95      5   5 -0.380000    22.435055502     7.436702368   -14.752368635   0   0   0 # o'
     96      5   7 -0.500000    23.020894689     6.129686062   -16.468838837   0   0   0 # n
     97      6   1  0.280000    30.239067845     9.307226549   -17.136096689   0   0   0 # hn
     98      6   2  0.020000    34.152928465     9.698828340   -21.311156017   0   0   0 # c2
     99      6   3  0.100000    35.137707771    10.298698389   -21.353117022   0   0   0 # h
    100      6   3  0.100000    34.535441633     8.634342931   -21.269636196   0   0   0 # h
    101      6   2 -0.200000    33.369859935     9.894519877   -20.014340206   0   0   0 # c2
    102      6   3  0.100000    32.743782756    10.766364018   -20.044520899   0   0   0 # h
    103      6   3  0.100000    32.606057717     9.066164462   -20.046672946   0   0   0 # h
    104      6   2 -0.200000    34.211228345     9.757011535   -18.675135805   0   0   0 # c2
    105      6   3  0.100000    34.824711821    10.653683682   -18.485123600   0   0   0 # h
    106      6   3  0.100000    34.968026299     8.942774755   -18.743288175   0   0   0 # h
    107      6   2 -0.200000    33.318094954     9.497798493   -17.431568659   0   0   0 # c2
    108      6   3  0.100000    32.693356496     8.632519248   -17.700410698   0   0   0 # h
    109      6   3  0.100000    33.972209146     9.157092111   -16.612024378   0   0   0 # h
    110      6   2 -0.200000    32.414868121    10.627783792   -16.970301373   0   0   0 # c2
    111      6   3  0.100000    32.975178477    11.507923115   -16.598606165   0   0   0 # h
    112      6   3  0.100000    31.745835339    11.024416915   -17.799854867   0   0   0 # h
    113      6   4  0.380000    31.554748341    10.179083112   -15.844865074   0   0   0 # c'
    114      6   5 -0.380000    31.882108720    10.295945067   -14.634408133   0   0   0 # o'
    115      6   7 -0.500000    30.377497854     9.590562583   -16.193037424   0   0   0 # n
    116      7   1  0.280000    32.691378938     9.115908689   -22.714234911   0   0   0 # hn
    117      7   2  0.020000    31.643314427     8.807458555   -29.482802630   0   0   0 # c2
    118      7   3  0.100000    30.658074940     9.356053331   -29.368961902   0   0   0 # h
    119      7   3  0.100000    32.421539115     9.544395014   -29.930176210   0   0   0 # h
    120      7   2 -0.200000    32.158738199     8.106262434   -28.225881129   0   0   0 # c2
    121      7   3  0.100000    31.564440984     7.352888127   -27.717978942   0   0   0 # h
    122      7   3  0.100000    33.140431768     7.673213308   -28.406532824   0   0   0 # h
    123      7   2 -0.200000    32.361669732     9.224233424   -27.203425599   0   0   0 # c2
    124      7   3  0.100000    31.461012449     9.797086593   -27.008879055   0   0   0 # h
    125      7   3  0.100000    33.061947408     9.927348541   -27.720375834   0   0   0 # h
    126      7   2 -0.200000    32.904409942     8.923163208   -25.846910340   0   0   0 # c2
    127      7   3  0.100000    32.230765944     8.121713686   -25.428902681   0   0   0 # h
    128      7   3  0.100000    33.897197729     8.406607554   -26.050031716   0   0   0 # h
    129      7   2 -0.200000    32.990048301    10.169733756   -24.955503383   0   0   0 # c2
    130      7   3  0.100000    33.406959941    11.100758473   -25.373722287   0   0   0 # h
    131      7   3  0.100000    31.967206779    10.345502946   -24.592848377   0   0   0 # h
    132      7   4  0.380000    33.972282971    10.168694385   -23.755399855   0   0   0 # c'
    133      7   5 -0.380000    35.117749390    10.622355271   -23.824015637   0   0   0 # o'
    134      7   7 -0.500000    33.457181569     9.722936455   -22.544211624   0   0   0 # n
    135      8   1  0.280000    31.044535912     6.709157085   -30.048936810   0   0   0 # hn
    136      8   2  0.020000    31.501513445     2.544763571   -33.908555149   0   0   0 # c2
    137      8   3  0.100000    30.473893228     2.460285296   -33.433716754   0   0   0 # h
    138      8   3  0.100000    31.461854578     2.334866110   -35.016998203   0   0   0 # h
    139      8   2 -0.200000    32.100800587     3.974185654   -33.557100705   0   0   0 # c2
    140      8   3  0.100000    32.118866152     4.025622192   -32.430807398   0   0   0 # h
    141      8   3  0.100000    33.179663219     4.061533358   -33.803320562   0   0   0 # h
    142      8   2 -0.200000    31.187461874     5.061638866   -34.204129744   0   0   0 # c2
    143      8   3  0.100000    30.122080227     4.840205713   -34.143502538   0   0   0 # h
    144      8   3  0.100000    31.344298683     4.990723109   -35.334413782   0   0   0 # h
    145      8   2 -0.200000    31.508685355     6.436963736   -33.775748625   0   0   0 # c2
    146      8   3  0.100000    32.653299744     6.607637744   -33.525828176   0   0   0 # h
    147      8   3  0.100000    31.326586834     7.154502495   -34.585687337   0   0   0 # h
    148      8   2 -0.200000    30.673493272     6.808728327   -32.553153034   0   0   0 # c2
    149      8   3  0.100000    29.681729094     7.265449201   -32.766827133   0   0   0 # h
    150      8   3  0.100000    30.487832887     5.935052566   -31.905823814   0   0   0 # h
    151      8   4  0.380000    31.200390925     7.943028595   -31.687108979   0   0   0 # c'
    152      8   5 -0.380000    31.347764285     9.020719681   -32.142797549   0   0   0 # o'
    153      8   7 -0.500000    31.393138031     7.644669006   -30.350912164   0   0   0 # n
    154      9   1  0.280000    32.708698752     0.660764789   -34.145361994   0   0   0 # hn
    155      9   2  0.020000    32.592632397    -4.898181671   -33.153882460   0   0   0 # c2
    156      9   3  0.100000    32.853060147    -4.148585709   -33.931758211   0   0   0 # h
    157      9   3  0.100000    33.273630996    -5.760034060   -33.124591377   0   0   0 # h
    158      9   2 -0.200000    32.863443893    -4.262403833   -31.746591097   0   0   0 # c2
    159      9   3  0.100000    31.984770715    -4.246255948   -31.029751925   0   0   0 # h
    160      9   3  0.100000    33.442570513    -4.915423563   -31.167148210   0   0   0 # h
    161      9   2 -0.200000    33.516482442    -2.843327556   -31.731819585   0   0   0 # c2
    162      9   3  0.100000    34.394884081    -2.949252809   -32.482994955   0   0   0 # h
    163      9   3  0.100000    34.025654481    -2.595100110   -30.749740853   0   0   0 # h
    164      9   2 -0.200000    32.461608804    -1.722095731   -32.087606945   0   0   0 # c2
    165      9   3  0.100000    32.233944499    -1.825529114   -33.136161015   0   0   0 # h
    166      9   3  0.100000    31.596460059    -1.895149201   -31.405963361   0   0   0 # h
    167      9   2 -0.200000    32.952435317    -0.365901358   -31.895874025   0   0   0 # c2
    168      9   3  0.100000    33.126508495    -0.230709163   -30.750199493   0   0   0 # h
    169      9   3  0.100000    33.948238321    -0.253050817   -32.338346751   0   0   0 # h
    170      9   4  0.380000    32.136343008     0.872125188   -32.269987806   0   0   0 # c'
    171      9   5 -0.380000    31.508961296     1.480454950   -31.416098257   0   0   0 # o'
    172      9   7 -0.500000    32.311174078     1.329038729   -33.490097484   0   0   0 # n
    173     10   1  0.280000    30.433174136    -5.419173834   -32.750929789   0   0   0 # hn
    174     10   8 -0.300000    26.114749299   -10.739714813   -34.739051344   0   0   0 # c3
    175     10   3  0.100000    26.040256629   -10.649123578   -35.817384680   0   0   0 # h
    176     10   3  0.100000    26.019089182   -11.829914422   -34.638109671   0   0   0 # h
    177     10   2 -0.200000    27.503656688   -10.298667278   -34.211118113   0   0   0 # c2
    178     10   3  0.100000    27.499252217   -10.378839919   -33.072033826   0   0   0 # h
    179     10   3  0.100000    28.347101884   -10.969132659   -34.613231239   0   0   0 # h
    180     10   2 -0.200000    27.854610298    -8.831270140   -34.608090353   0   0   0 # c2
    181     10   3  0.100000    27.083690130    -8.009490526   -34.388931816   0   0   0 # h
    182     10   3  0.100000    27.967760053    -8.849991727   -35.695292157   0   0   0 # h
    183     10   2 -0.200000    29.279838491    -8.379030264   -33.977559389   0   0   0 # c2
    184     10   3  0.100000    29.249927296    -8.362978531   -32.884594911   0   0   0 # h
    185     10   3  0.100000    30.105286552    -9.125604431   -34.195820681   0   0   0 # h
    186     10   2 -0.200000    29.500209145    -6.960599750   -34.449352746   0   0   0 # c2
    187     10   3  0.100000    29.357352145    -6.987341105   -35.494478307   0   0   0 # h
    188     10   3  0.100000    28.684155194    -6.416180732   -33.900732753   0   0   0 # h
    189     10   4  0.380000    30.955885444    -6.350472490   -34.326266255   0   0   0 # c'
    190     10   5 -0.380000    31.841025000    -6.556366532   -35.177153916   0   0   0 # o'
    191     10   7 -0.500000    31.181307019    -5.404707978   -33.411213164   0   0   0 # n
    192     10   3  0.100000    25.338047988   -10.224428078   -34.188608856   0   0   0 # h

Bonds

     1   1      1     19
     2   2      2      5
     3   3      2      4
     4   3      2      3
     5   4      2     39
     6   2      5      8
     7   3      5      7
     8   3      5      6
     9   2      8     11
    10   3      8     10
    11   3      8      9
    12   2     11     14
    13   3     11     13
    14   3     11     12
    15   3     14     16
    16   3     14     15
    17   5     14     17
    18   6     17     18
    19   7     17     19
    20   1     20     19
    21   8     21     39
    22   2     22     25
    23   3     22     24
    24   3     22     23
    25   4     22     58
    26   2     25     28
    27   3     25     27
    28   3     25     26
    29   2     28     31
    30   3     28     30
    31   3     28     29
    32   2     31     34
    33   3     31     33
    34   3     31     32
    35   3     34     36
    36   3     34     35
    37   5     34     37
    38   6     37     38
    39   9     37     39
    40   8     40     58
    41   2     41     44
    42   3     41     43
    43   3     41     42
    44   4     41     77
    45   2     44     47
    46   3     44     46
    47   3     44     45
    48   2     47     50
    49   3     47     49
    50   3     47     48
    51   2     50     53
    52   3     50     52
    53   3     50     51
    54   3     53     55
    55   3     53     54
    56   5     53     56
    57   6     56     57
    58   9     56     58
    59   8     59     77
    60   2     60     63
    61   3     60     62
    62   3     60     61
    63   4     60     96
    64   2     63     66
    65   3     63     65
    66   3     63     64
    67   2     66     69
    68   3     66     68
    69   3     66     67
    70   2     69     72
    71   3     69     71
    72   3     69     70
    73   3     72     74
    74   3     72     73
    75   5     72     75
    76   6     75     76
    77   9     75     77
    78   8     78     96
    79   2     79     82
    80   3     79     81
    81   3     79     80
    82   4     79    115
    83   2     82     85
    84   3     82     84
    85   3     82     83
    86   2     85     88
    87   3     85     87
    88   3     85     86
    89   2     88     91
    90   3     88     90
    91   3     88     89
    92   3     91     93
    93   3     91     92
    94   5     91     94
    95   6     94     95
    96   9     94     96
    97   8     97    115
    98   2     98    101
    99   3     98    100
   100   3     98     99
   101   4     98    134
   102   2    101    104
   103   3    101    103
   104   3    101    102
   105   2    104    107
   106   3    104    106
   107   3    104    105
   108   2    107    110
   109   3    107    109
   110   3    107    108
   111   3    110    112
   112   3    110    111
   113   5    110    113
   114   6    113    114
   115   9    113    115
   116   8    116    134
   117   2    117    120
   118   3    117    119
   119   3    117    118
   120   4    117    153
   121   2    120    123
   122   3    120    122
   123   3    120    121
   124   2    123    126
   125   3    123    125
   126   3    123    124
   127   2    126    129
   128   3    126    128
   129   3    126    127
   130   3    129    131
   131   3    129    130
   132   5    129    132
   133   6    132    133
   134   9    132    134
   135   8    135    153
   136   2    136    139
   137   3    136    138
   138   3    136    137
   139   4    136    172
   140   2    139    142
   141   3    139    141
   142   3    139    140
   143   2    142    145
   144   3    142    144
   145   3    142    143
   146   2    145    148
   147   3    145    147
   148   3    145    146
   149   3    148    150
   150   3    148    149
   151   5    148    151
   152   6    151    152
   153   9    151    153
   154   8    154    172
   155   2    155    158
   156   3    155    157
   157   3    155    156
   158   4    155    191
   159   2    158    161
   160   3    158    160
   161   3    158    159
   162   2    161    164
   163   3    161    163
   164   3    161    162
   165   2    164    167
   166   3    164    166
   167   3    164    165
   168   3    167    169
   169   3    167    168
   170   5    167    170
   171   6    170    171
   172   9    170    172
   173   8    173    191
   174  10    177    174
   175  11    176    174
   176  11    175    174
   177  11    192    174
   178   2    177    180
   179   3    177    179
   180   3    177    178
   181   2    180    183
   182   3    180    182
   183   3    180    181
   184   2    183    186
   185   3    183    185
   186   3    183    184
   187   3    186    188
   188   3    186    187
   189   5    186    189
   190   6    189    190
   191   9    189    191

Angles

     1   1      5      2      4
     2   1      5      2      3
     3   2      5      2     39
     4   3      4      2      3
     5   4      4      2     39
     6   4      3      2     39
     7   5      2      5      8
     8   1      2      5      7
     9   1      2      5      6
    10   1      8      5      7
    11   1      8      5      6
    12   3      7      5      6
    13   5      5      8     11
    14   1      5      8     10
    15   1      5      8      9
    16   1     11      8     10
    17   1     11      8      9
    18   3     10      8      9
    19   5      8     11     14
    20   1      8     11     13
    21   1      8     11     12
    22   1     14     11     13
    23   1     14     11     12
    24   3     13     11     12
    25   3     16     14     15
    26   1     11     14     16
    27   6     16     14     17
    28   1     11     14     15
    29   6     15     14     17
    30   7     11     14     17
    31   8     18     17     19
    32   9     14     17     18
    33  10     14     17     19
    34  11     20     19     17
    35  11      1     19     17
    36  12     20     19      1
    37   1     25     22     24
    38   1     25     22     23
    39   2     25     22     58
    40   3     24     22     23
    41   4     24     22     58
    42   4     23     22     58
    43   5     22     25     28
    44   1     22     25     27
    45   1     22     25     26
    46   1     28     25     27
    47   1     28     25     26
    48   3     27     25     26
    49   5     25     28     31
    50   1     25     28     30
    51   1     25     28     29
    52   1     31     28     30
    53   1     31     28     29
    54   3     30     28     29
    55   5     28     31     34
    56   1     28     31     33
    57   1     28     31     32
    58   1     34     31     33
    59   1     34     31     32
    60   3     33     31     32
    61   3     36     34     35
    62   1     31     34     36
    63   6     36     34     37
    64   1     31     34     35
    65   6     35     34     37
    66   7     31     34     37
    67  13     38     37     39
    68   9     34     37     38
    69  14     34     37     39
    70  15     21     39     37
    71  16      2     39     37
    72  17     21     39      2
    73   1     44     41     43
    74   1     44     41     42
    75   2     44     41     77
    76   3     43     41     42
    77   4     43     41     77
    78   4     42     41     77
    79   5     41     44     47
    80   1     41     44     46
    81   1     41     44     45
    82   1     47     44     46
    83   1     47     44     45
    84   3     46     44     45
    85   5     44     47     50
    86   1     44     47     49
    87   1     44     47     48
    88   1     50     47     49
    89   1     50     47     48
    90   3     49     47     48
    91   5     47     50     53
    92   1     47     50     52
    93   1     47     50     51
    94   1     53     50     52
    95   1     53     50     51
    96   3     52     50     51
    97   3     55     53     54
    98   1     50     53     55
    99   6     55     53     56
   100   1     50     53     54
   101   6     54     53     56
   102   7     50     53     56
   103  13     57     56     58
   104   9     53     56     57